59
Lattice="30.51914 0.0 0.0 0.0 36.09108 0.0 0.0 0.0 23.63843" Properties=species:S:1:pos:R:3:forces:R:3 energy=-359.66483825948023 pbc="F F F"
C       14.19899883      15.89689658      11.47518985       0.00353230      -0.00263036       0.00070976
C       13.33009200      16.99366469      11.37712798      -0.00095325      -0.00165861       0.00008875
C       13.94391161      18.24752069      11.51333829       0.00696724      -0.00236112       0.00071948
C       15.53172291      16.26680878      11.69714332      -0.00351192      -0.00117777      -0.00007969
S       15.64912929      17.98281747      11.83513609      -0.00349547       0.00182346      -0.00028985
H       12.26083407      16.91623298      11.19522716       0.00201596      -0.00033092       0.00247143
H       13.89311264      14.85804221      11.38104027       0.00040399       0.00108256      -0.00047877
C       13.31351929      19.49425411      11.43283474      -0.00059266       0.00390627       0.00020797
C       13.98051841      20.72426007      11.44112944       0.00479657      -0.00087276      -0.00013188
H       12.22873322      19.48764060      11.33122814      -0.00232873      -0.00125244       0.00116690
S       15.73941682      20.83430468      11.53946404      -0.00211965      -0.00152975       0.00017588
C       13.46492896      22.04629320      11.33553278      -0.00487799       0.00074968      -0.00213273
C       11.99622415      22.44338142      11.25297917      -0.00115000      -0.00036290       0.00297743
C       11.40504626      21.86783963       9.96970433      -0.00351001       0.00363855      -0.00062086
C       11.90824104      23.97149297      11.21538101      -0.00162429      -0.00061048       0.00016691
H       12.31105924      24.40965828      12.13400420      -0.00091710       0.00111073      -0.00097779
H       10.85986721      24.27660403      11.11858915       0.00179861       0.00019813       0.00082301
H       12.46917047      24.37867227      10.36861759       0.00134021      -0.00144730      -0.00047400
H       11.93468087      22.27578686       9.09910032      -0.00058150       0.00153886       0.00190606
H       10.34546376      22.14406431       9.89110011       0.00303791      -0.00178377      -0.00131587
H       11.48559884      20.77687532       9.93628357      -0.00025609      -0.00085776      -0.00213082
C       11.26213599      21.92371055      12.48532676       0.00118557      -0.00245394       0.00021310
H       11.68851539      22.37512116      13.39046894      -0.00031787      -0.00053702      -0.00307964
H       11.33902319      20.83622425      12.57906160      -0.00273092       0.00303560       0.00254435
H       10.20042189      22.19704331      12.42880900       0.00242096       0.00033904       0.00005459
N       14.37154960      23.02775495      11.28580608      -0.00375908      -0.00341814       0.00019781
C       15.62688173      22.59218581      11.35759450       0.00646320       0.00456944       0.00057519
C       16.77272835      23.41772712      11.27427161       0.00008329      -0.00138402      -0.00119734
C       18.05762014      22.83551619      11.28243231      -0.00467976       0.00223438       0.00083496
C       16.55990282      24.80535511      11.12804258       0.00057291      -0.00334255      -0.00067270
N       19.11356975      22.32371001      11.28863321       0.00570357      -0.00184257      -0.00035304
N       16.36365861      25.95434836      11.00968548      -0.00127181       0.00298005      -0.00007880
N       16.62665718      15.50156321      11.77398761      -0.00327282      -0.00114817      -0.00060664
C       16.50497621      14.02862936      11.79967243       0.00219957      -0.00267285      -0.00220452
C       15.78370187      13.48097992      13.03329900       0.00159923      -0.00049885      -0.00282119
H       17.52863030      13.63924188      11.75699273      -0.00619348       0.00040684       0.00069708
H       15.97910028      13.70276511      10.88489918       0.00300839       0.00281307       0.00265835
C       15.41972303      12.00493004      12.89584968      -0.00108406       0.00068466       0.00337982
H       14.87331971      14.06289589      13.22106728      -0.00089943       0.00039120      -0.00022491
H       16.44503266      13.62313482      13.90026609       0.00027326       0.00090699      -0.00092289
C       16.59936935      11.08373021      12.60185136       0.00036655      -0.00131580       0.00068288
H       14.67371374      11.89853141      12.09775215       0.00039335       0.00029540       0.00013611
H       14.93003022      11.69386016      13.82546716       0.00087066       0.00036810      -0.00340843
H       17.06490229      11.32039591      11.63974529       0.00054293      -0.00111343       0.00029277
H       16.25945056      10.04503380      12.56025308      -0.00008182       0.00161055       0.00050339
H       17.36458296      11.15203336      13.38274368      -0.00084922      -0.00039499      -0.00136870
C       17.98999427      16.11727471      11.69954972      -0.00003965      -0.00136678      -0.00071383
C       18.30341994      16.79759339      10.36350168      -0.00394896       0.00071654       0.00137319
H       18.68779852      15.28698249      11.85611796      -0.00111592       0.00188264       0.00057546
H       18.09617801      16.81990131      12.54189375      -0.00112015       0.00028679      -0.00078765
C       19.51140964      17.73381798      10.43416279       0.00651033       0.00036024       0.00098123
H       17.42235613      17.33908428       9.99077656       0.00258467       0.00039328      -0.00010773
H       18.51483011      15.99422108       9.64419913       0.00071559      -0.00028059      -0.00011480
C       19.20594285      19.11949459      11.00173958      -0.00147851       0.00217968       0.00199309
H       19.90337807      17.84838593       9.41615290      -0.00131641      -0.00141229       0.00169573
H       20.30407513      17.26275368      11.03035488      -0.00214927       0.00184725      -0.00332772
H       20.09864947      19.75393075      11.00198682      -0.00194360      -0.00143832      -0.00034425
H       18.84295298      19.07167292      12.03608323       0.00249848       0.00047186      -0.00177573
H       18.45265714      19.64563385      10.40119063       0.00228610      -0.00132557       0.00194007
